Written by lammps_data.py made by Marshall Hunt

72 atoms
108 bonds
216 angles
1 atom types
1 bond types
1 angle types
0.0 18.0 xlo xhi
0.0 15.588457268119896 ylo yhi

Atom Type Labels

1                    Si                   

Bond Type Labels

1                    Si-Si                

Angle Type Labels

1                    Si-Si-Si             

Masses

Si                   28.1                 

Atoms # molecular

1                    1                    Si                   1.5                  0.4330127018922193   
2                    2                    Si                   4.5                  0.4330127018922193   
3                    3                    Si                   7.5                  0.4330127018922193   
4                    4                    Si                   10.5                 0.4330127018922193   
5                    5                    Si                   13.5                 0.4330127018922193   
6                    6                    Si                   16.5                 0.4330127018922193   
7                    7                    Si                   1.5                  2.1650635094610964   
8                    8                    Si                   4.5                  2.1650635094610964   
9                    9                    Si                   7.5                  2.1650635094610964   
10                   10                   Si                   10.5                 2.1650635094610964   
11                   11                   Si                   13.5                 2.1650635094610964   
12                   12                   Si                   16.5                 2.1650635094610964   
13                   13                   Si                   3.0                  3.0310889132455356   
14                   14                   Si                   6.0                  3.0310889132455356   
15                   15                   Si                   9.0                  3.0310889132455356   
16                   16                   Si                   12.0                 3.0310889132455356   
17                   17                   Si                   15.0                 3.0310889132455356   
18                   18                   Si                   18.0                 3.0310889132455356   
19                   19                   Si                   3.0                  4.763139720814412    
20                   20                   Si                   6.0                  4.763139720814412    
21                   21                   Si                   9.0                  4.763139720814412    
22                   22                   Si                   12.0                 4.763139720814412    
23                   23                   Si                   15.0                 4.763139720814412    
24                   24                   Si                   18.0                 4.763139720814412    
25                   25                   Si                   1.5                  5.629165124598851    
26                   26                   Si                   4.5                  5.629165124598851    
27                   27                   Si                   7.5                  5.629165124598851    
28                   28                   Si                   10.5                 5.629165124598851    
29                   29                   Si                   13.5                 5.629165124598851    
30                   30                   Si                   16.5                 5.629165124598851    
31                   31                   Si                   1.5                  7.361215932167728    
32                   32                   Si                   4.5                  7.361215932167728    
33                   33                   Si                   7.5                  7.361215932167728    
34                   34                   Si                   10.5                 7.361215932167728    
35                   35                   Si                   13.5                 7.361215932167728    
36                   36                   Si                   16.5                 7.361215932167728    
37                   37                   Si                   3.0                  8.227241335952169    
38                   38                   Si                   6.0                  8.227241335952169    
39                   39                   Si                   9.0                  8.227241335952169    
40                   40                   Si                   12.0                 8.227241335952169    
41                   41                   Si                   15.0                 8.227241335952169    
42                   42                   Si                   18.0                 8.227241335952169    
43                   43                   Si                   3.0                  9.959292143521044    
44                   44                   Si                   6.0                  9.959292143521044    
45                   45                   Si                   9.0                  9.959292143521044    
46                   46                   Si                   12.0                 9.959292143521044    
47                   47                   Si                   15.0                 9.959292143521044    
48                   48                   Si                   18.0                 9.959292143521044    
49                   49                   Si                   1.5                  10.825317547305483   
50                   50                   Si                   4.5                  10.825317547305483   
51                   51                   Si                   7.5                  10.825317547305483   
52                   52                   Si                   10.5                 10.825317547305483   
53                   53                   Si                   13.5                 10.825317547305483   
54                   54                   Si                   16.5                 10.825317547305483   
55                   55                   Si                   1.5                  12.55736835487436    
56                   56                   Si                   4.5                  12.55736835487436    
57                   57                   Si                   7.5                  12.55736835487436    
58                   58                   Si                   10.5                 12.55736835487436    
59                   59                   Si                   13.5                 12.55736835487436    
60                   60                   Si                   16.5                 12.55736835487436    
61                   61                   Si                   3.0                  13.423393758658797   
62                   62                   Si                   6.0                  13.423393758658797   
63                   63                   Si                   9.0                  13.423393758658797   
64                   64                   Si                   12.0                 13.423393758658797   
65                   65                   Si                   15.0                 13.423393758658797   
66                   66                   Si                   18.0                 13.423393758658797   
67                   67                   Si                   3.0                  15.155444566227676   
68                   68                   Si                   6.0                  15.155444566227676   
69                   69                   Si                   9.0                  15.155444566227676   
70                   70                   Si                   12.0                 15.155444566227676   
71                   71                   Si                   15.0                 15.155444566227676   
72                   72                   Si                   18.0                 15.155444566227676   

Bonds

1                    Si-Si                1                    72                   
2                    Si-Si                1                    67                   
3                    Si-Si                1                    7                    
4                    Si-Si                2                    68                   
5                    Si-Si                2                    8                    
6                    Si-Si                2                    67                   
7                    Si-Si                3                    69                   
8                    Si-Si                3                    9                    
9                    Si-Si                3                    68                   
10                   Si-Si                4                    70                   
11                   Si-Si                4                    10                   
12                   Si-Si                4                    69                   
13                   Si-Si                5                    71                   
14                   Si-Si                5                    11                   
15                   Si-Si                5                    70                   
16                   Si-Si                6                    72                   
17                   Si-Si                6                    12                   
18                   Si-Si                6                    71                   
19                   Si-Si                7                    18                   
20                   Si-Si                7                    13                   
21                   Si-Si                8                    14                   
22                   Si-Si                8                    13                   
23                   Si-Si                9                    15                   
24                   Si-Si                9                    14                   
25                   Si-Si                10                   16                   
26                   Si-Si                10                   15                   
27                   Si-Si                11                   17                   
28                   Si-Si                11                   16                   
29                   Si-Si                12                   18                   
30                   Si-Si                12                   17                   
31                   Si-Si                13                   19                   
32                   Si-Si                14                   20                   
33                   Si-Si                15                   21                   
34                   Si-Si                16                   22                   
35                   Si-Si                17                   23                   
36                   Si-Si                18                   24                   
37                   Si-Si                19                   26                   
38                   Si-Si                19                   25                   
39                   Si-Si                20                   27                   
40                   Si-Si                20                   26                   
41                   Si-Si                21                   28                   
42                   Si-Si                21                   27                   
43                   Si-Si                22                   29                   
44                   Si-Si                22                   28                   
45                   Si-Si                23                   30                   
46                   Si-Si                23                   29                   
47                   Si-Si                24                   30                   
48                   Si-Si                24                   25                   
49                   Si-Si                25                   31                   
50                   Si-Si                26                   32                   
51                   Si-Si                27                   33                   
52                   Si-Si                28                   34                   
53                   Si-Si                29                   35                   
54                   Si-Si                30                   36                   
55                   Si-Si                31                   42                   
56                   Si-Si                31                   37                   
57                   Si-Si                32                   38                   
58                   Si-Si                32                   37                   
59                   Si-Si                33                   39                   
60                   Si-Si                33                   38                   
61                   Si-Si                34                   40                   
62                   Si-Si                34                   39                   
63                   Si-Si                35                   41                   
64                   Si-Si                35                   40                   
65                   Si-Si                36                   42                   
66                   Si-Si                36                   41                   
67                   Si-Si                37                   43                   
68                   Si-Si                38                   44                   
69                   Si-Si                39                   45                   
70                   Si-Si                40                   46                   
71                   Si-Si                41                   47                   
72                   Si-Si                42                   48                   
73                   Si-Si                43                   50                   
74                   Si-Si                43                   49                   
75                   Si-Si                44                   51                   
76                   Si-Si                44                   50                   
77                   Si-Si                45                   52                   
78                   Si-Si                45                   51                   
79                   Si-Si                46                   53                   
80                   Si-Si                46                   52                   
81                   Si-Si                47                   54                   
82                   Si-Si                47                   53                   
83                   Si-Si                48                   54                   
84                   Si-Si                48                   49                   
85                   Si-Si                49                   55                   
86                   Si-Si                50                   56                   
87                   Si-Si                51                   57                   
88                   Si-Si                52                   58                   
89                   Si-Si                53                   59                   
90                   Si-Si                54                   60                   
91                   Si-Si                55                   66                   
92                   Si-Si                55                   61                   
93                   Si-Si                56                   62                   
94                   Si-Si                56                   61                   
95                   Si-Si                57                   63                   
96                   Si-Si                57                   62                   
97                   Si-Si                58                   64                   
98                   Si-Si                58                   63                   
99                   Si-Si                59                   65                   
100                  Si-Si                59                   64                   
101                  Si-Si                60                   66                   
102                  Si-Si                60                   65                   
103                  Si-Si                61                   67                   
104                  Si-Si                62                   68                   
105                  Si-Si                63                   69                   
106                  Si-Si                64                   70                   
107                  Si-Si                65                   71                   
108                  Si-Si                66                   72                   

Angles

1                    Si-Si-Si             72                   1                    67                   
2                    Si-Si-Si             67                   1                    7                    
3                    Si-Si-Si             7                    1                    72                   
4                    Si-Si-Si             68                   2                    8                    
5                    Si-Si-Si             8                    2                    67                   
6                    Si-Si-Si             67                   2                    68                   
7                    Si-Si-Si             69                   3                    9                    
8                    Si-Si-Si             9                    3                    68                   
9                    Si-Si-Si             68                   3                    69                   
10                   Si-Si-Si             70                   4                    10                   
11                   Si-Si-Si             10                   4                    69                   
12                   Si-Si-Si             69                   4                    70                   
13                   Si-Si-Si             71                   5                    11                   
14                   Si-Si-Si             11                   5                    70                   
15                   Si-Si-Si             70                   5                    71                   
16                   Si-Si-Si             72                   6                    12                   
17                   Si-Si-Si             12                   6                    71                   
18                   Si-Si-Si             71                   6                    72                   
19                   Si-Si-Si             1                    7                    18                   
20                   Si-Si-Si             18                   7                    13                   
21                   Si-Si-Si             13                   7                    1                    
22                   Si-Si-Si             2                    8                    14                   
23                   Si-Si-Si             14                   8                    13                   
24                   Si-Si-Si             13                   8                    2                    
25                   Si-Si-Si             3                    9                    15                   
26                   Si-Si-Si             15                   9                    14                   
27                   Si-Si-Si             14                   9                    3                    
28                   Si-Si-Si             4                    10                   16                   
29                   Si-Si-Si             16                   10                   15                   
30                   Si-Si-Si             15                   10                   4                    
31                   Si-Si-Si             5                    11                   17                   
32                   Si-Si-Si             17                   11                   16                   
33                   Si-Si-Si             16                   11                   5                    
34                   Si-Si-Si             6                    12                   18                   
35                   Si-Si-Si             18                   12                   17                   
36                   Si-Si-Si             17                   12                   6                    
37                   Si-Si-Si             7                    13                   8                    
38                   Si-Si-Si             8                    13                   19                   
39                   Si-Si-Si             19                   13                   7                    
40                   Si-Si-Si             8                    14                   9                    
41                   Si-Si-Si             9                    14                   20                   
42                   Si-Si-Si             20                   14                   8                    
43                   Si-Si-Si             9                    15                   10                   
44                   Si-Si-Si             10                   15                   21                   
45                   Si-Si-Si             21                   15                   9                    
46                   Si-Si-Si             10                   16                   11                   
47                   Si-Si-Si             11                   16                   22                   
48                   Si-Si-Si             22                   16                   10                   
49                   Si-Si-Si             11                   17                   12                   
50                   Si-Si-Si             12                   17                   23                   
51                   Si-Si-Si             23                   17                   11                   
52                   Si-Si-Si             7                    18                   12                   
53                   Si-Si-Si             12                   18                   24                   
54                   Si-Si-Si             24                   18                   7                    
55                   Si-Si-Si             13                   19                   26                   
56                   Si-Si-Si             26                   19                   25                   
57                   Si-Si-Si             25                   19                   13                   
58                   Si-Si-Si             14                   20                   27                   
59                   Si-Si-Si             27                   20                   26                   
60                   Si-Si-Si             26                   20                   14                   
61                   Si-Si-Si             15                   21                   28                   
62                   Si-Si-Si             28                   21                   27                   
63                   Si-Si-Si             27                   21                   15                   
64                   Si-Si-Si             16                   22                   29                   
65                   Si-Si-Si             29                   22                   28                   
66                   Si-Si-Si             28                   22                   16                   
67                   Si-Si-Si             17                   23                   30                   
68                   Si-Si-Si             30                   23                   29                   
69                   Si-Si-Si             29                   23                   17                   
70                   Si-Si-Si             18                   24                   30                   
71                   Si-Si-Si             30                   24                   25                   
72                   Si-Si-Si             25                   24                   18                   
73                   Si-Si-Si             19                   25                   24                   
74                   Si-Si-Si             24                   25                   31                   
75                   Si-Si-Si             31                   25                   19                   
76                   Si-Si-Si             19                   26                   20                   
77                   Si-Si-Si             20                   26                   32                   
78                   Si-Si-Si             32                   26                   19                   
79                   Si-Si-Si             20                   27                   21                   
80                   Si-Si-Si             21                   27                   33                   
81                   Si-Si-Si             33                   27                   20                   
82                   Si-Si-Si             21                   28                   22                   
83                   Si-Si-Si             22                   28                   34                   
84                   Si-Si-Si             34                   28                   21                   
85                   Si-Si-Si             22                   29                   23                   
86                   Si-Si-Si             23                   29                   35                   
87                   Si-Si-Si             35                   29                   22                   
88                   Si-Si-Si             23                   30                   24                   
89                   Si-Si-Si             24                   30                   36                   
90                   Si-Si-Si             36                   30                   23                   
91                   Si-Si-Si             25                   31                   42                   
92                   Si-Si-Si             42                   31                   37                   
93                   Si-Si-Si             37                   31                   25                   
94                   Si-Si-Si             26                   32                   38                   
95                   Si-Si-Si             38                   32                   37                   
96                   Si-Si-Si             37                   32                   26                   
97                   Si-Si-Si             27                   33                   39                   
98                   Si-Si-Si             39                   33                   38                   
99                   Si-Si-Si             38                   33                   27                   
100                  Si-Si-Si             28                   34                   40                   
101                  Si-Si-Si             40                   34                   39                   
102                  Si-Si-Si             39                   34                   28                   
103                  Si-Si-Si             29                   35                   41                   
104                  Si-Si-Si             41                   35                   40                   
105                  Si-Si-Si             40                   35                   29                   
106                  Si-Si-Si             30                   36                   42                   
107                  Si-Si-Si             42                   36                   41                   
108                  Si-Si-Si             41                   36                   30                   
109                  Si-Si-Si             31                   37                   32                   
110                  Si-Si-Si             32                   37                   43                   
111                  Si-Si-Si             43                   37                   31                   
112                  Si-Si-Si             32                   38                   33                   
113                  Si-Si-Si             33                   38                   44                   
114                  Si-Si-Si             44                   38                   32                   
115                  Si-Si-Si             33                   39                   34                   
116                  Si-Si-Si             34                   39                   45                   
117                  Si-Si-Si             45                   39                   33                   
118                  Si-Si-Si             34                   40                   35                   
119                  Si-Si-Si             35                   40                   46                   
120                  Si-Si-Si             46                   40                   34                   