Written by lammps_data.py made by Marshall Hunt

2048 atoms
3072 bonds
8192 angles
1 atom types
1 bond types
1 angle types
0.0 96.0 xlo xhi
0.0 83.13843876330611 ylo yhi

Atom Type Labels

1                    Si                   

Bond Type Labels

1                    Si-Si                

Angle Type Labels

1                    Si-Si-Si             

Masses

Si                   28.1                 

Atoms # molecular

1                    1                    Si                   1.5                  0.4330127018922193   
2                    2                    Si                   4.5                  0.4330127018922193   
3                    3                    Si                   7.5                  0.4330127018922193   
4                    4                    Si                   10.5                 0.4330127018922193   
5                    5                    Si                   13.5                 0.4330127018922193   
6                    6                    Si                   16.5                 0.4330127018922193   
7                    7                    Si                   19.5                 0.4330127018922193   
8                    8                    Si                   22.5                 0.4330127018922193   
9                    9                    Si                   25.5                 0.4330127018922193   
10                   10                   Si                   28.5                 0.4330127018922193   
11                   11                   Si                   31.5                 0.4330127018922193   
12                   12                   Si                   34.5                 0.4330127018922193   
13                   13                   Si                   37.5                 0.4330127018922193   
14                   14                   Si                   40.5                 0.4330127018922193   
15                   15                   Si                   43.5                 0.4330127018922193   
16                   16                   Si                   46.5                 0.4330127018922193   
17                   17                   Si                   49.5                 0.4330127018922193   
18                   18                   Si                   52.5                 0.4330127018922193   
19                   19                   Si                   55.5                 0.4330127018922193   
20                   20                   Si                   58.5                 0.4330127018922193   
21                   21                   Si                   61.5                 0.4330127018922193   
22                   22                   Si                   64.5                 0.4330127018922193   
23                   23                   Si                   67.5                 0.4330127018922193   
24                   24                   Si                   70.5                 0.4330127018922193   
25                   25                   Si                   73.5                 0.4330127018922193   
26                   26                   Si                   76.5                 0.4330127018922193   
27                   27                   Si                   79.5                 0.4330127018922193   
28                   28                   Si                   82.5                 0.4330127018922193   
29                   29                   Si                   85.5                 0.4330127018922193   
30                   30                   Si                   88.5                 0.4330127018922193   
31                   31                   Si                   91.5                 0.4330127018922193   
32                   32                   Si                   94.5                 0.4330127018922193   
33                   33                   Si                   1.5                  2.1650635094610964   
34                   34                   Si                   4.5                  2.1650635094610964   
35                   35                   Si                   7.5                  2.1650635094610964   
36                   36                   Si                   10.5                 2.1650635094610964   
37                   37                   Si                   13.5                 2.1650635094610964   
38                   38                   Si                   16.5                 2.1650635094610964   
39                   39                   Si                   19.5                 2.1650635094610964   
40                   40                   Si                   22.5                 2.1650635094610964   
41                   41                   Si                   25.5                 2.1650635094610964   
42                   42                   Si                   28.5                 2.1650635094610964   
43                   43                   Si                   31.5                 2.1650635094610964   
44                   44                   Si                   34.5                 2.1650635094610964   
45                   45                   Si                   37.5                 2.1650635094610964   
46                   46                   Si                   40.5                 2.1650635094610964   
47                   47                   Si                   43.5                 2.1650635094610964   
48                   48                   Si                   46.5                 2.1650635094610964   
49                   49                   Si                   49.5                 2.1650635094610964   
50                   50                   Si                   52.5                 2.1650635094610964   
51                   51                   Si                   55.5                 2.1650635094610964   
52                   52                   Si                   58.5                 2.1650635094610964   
53                   53                   Si                   61.5                 2.1650635094610964   
54                   54                   Si                   64.5                 2.1650635094610964   
55                   55                   Si                   67.5                 2.1650635094610964   
56                   56                   Si                   70.5                 2.1650635094610964   
57                   57                   Si                   73.5                 2.1650635094610964   
58                   58                   Si                   76.5                 2.1650635094610964   
59                   59                   Si                   79.5                 2.1650635094610964   
60                   60                   Si                   82.5                 2.1650635094610964   
61                   61                   Si                   85.5                 2.1650635094610964   
62                   62                   Si                   88.5                 2.1650635094610964   
63                   63                   Si                   91.5                 2.1650635094610964   
64                   64                   Si                   94.5                 2.1650635094610964   
65                   65                   Si                   3.0                  3.0310889132455356   
66                   66                   Si                   6.0                  3.0310889132455356   
67                   67                   Si                   9.0                  3.0310889132455356   
68                   68                   Si                   12.0                 3.0310889132455356   
69                   69                   Si                   15.0                 3.0310889132455356   
70                   70                   Si                   18.0                 3.0310889132455356   
71                   71                   Si                   21.0                 3.0310889132455356   
72                   72                   Si                   24.0                 3.0310889132455356   
73                   73                   Si                   27.0                 3.0310889132455356   
74                   74                   Si                   30.0                 3.0310889132455356   
75                   75                   Si                   33.0                 3.0310889132455356   
76                   76                   Si                   36.0                 3.0310889132455356   
77                   77                   Si                   39.0                 3.0310889132455356   
78                   78                   Si                   42.0                 3.0310889132455356   
79                   79                   Si                   45.0                 3.0310889132455356   
80                   80                   Si                   48.0                 3.0310889132455356   
81                   81                   Si                   51.0                 3.0310889132455356   
82                   82                   Si                   54.0                 3.0310889132455356   
83                   83                   Si                   57.0                 3.0310889132455356   
84                   84                   Si                   60.0                 3.0310889132455356   
85                   85                   Si                   63.0                 3.0310889132455356   
86                   86                   Si                   66.0                 3.0310889132455356   
87                   87                   Si                   69.0                 3.0310889132455356   
88                   88                   Si                   72.0                 3.0310889132455356   
89                   89                   Si                   75.0                 3.0310889132455356   
90                   90                   Si                   78.0                 3.0310889132455356   
91                   91                   Si                   81.0                 3.0310889132455356   
92                   92                   Si                   84.0                 3.0310889132455356   
93                   93                   Si                   87.0                 3.0310889132455356   
94                   94                   Si                   90.0                 3.0310889132455356   
95                   95                   Si                   93.0                 3.0310889132455356   
96                   96                   Si                   96.0                 3.0310889132455356   
97                   97                   Si                   3.0                  4.763139720814412    
98                   98                   Si                   6.0                  4.763139720814412    
99                   99                   Si                   9.0                  4.763139720814412    
100                  100                  Si                   12.0                 4.763139720814412    
101                  101                  Si                   15.0                 4.763139720814412    
102                  102                  Si                   18.0                 4.763139720814412    
103                  103                  Si                   21.0                 4.763139720814412    
104                  104                  Si                   24.0                 4.763139720814412    
105                  105                  Si                   27.0                 4.763139720814412    
106                  106                  Si                   30.0                 4.763139720814412    
107                  107                  Si                   33.0                 4.763139720814412    
108                  108                  Si                   36.0                 4.763139720814412    
109                  109                  Si                   39.0                 4.763139720814412    
110                  110                  Si                   42.0                 4.763139720814412    
111                  111                  Si                   45.0                 4.763139720814412    
112                  112                  Si                   48.0                 4.763139720814412    
113                  113                  Si                   51.0                 4.763139720814412    
114                  114                  Si                   54.0                 4.763139720814412    
115                  115                  Si                   57.0                 4.763139720814412    
116                  116                  Si                   60.0                 4.763139720814412    
117                  117                  Si                   63.0                 4.763139720814412    
118                  118                  Si                   66.0                 4.763139720814412    
119                  119                  Si                   69.0                 4.763139720814412    
120                  120                  Si                   72.0                 4.763139720814412    
121                  121                  Si                   75.0                 4.763139720814412    
122                  122                  Si                   78.0                 4.763139720814412    
123                  123                  Si                   81.0                 4.763139720814412    
124                  124                  Si                   84.0                 4.763139720814412    
125                  125                  Si                   87.0                 4.763139720814412    
126                  126                  Si                   90.0                 4.763139720814412    
127                  127                  Si                   93.0                 4.763139720814412    
128                  128                  Si                   96.0                 4.763139720814412    
129                  129                  Si                   1.5                  5.629165124598851    
130                  130                  Si                   4.5                  5.629165124598851    
131                  131                  Si                   7.5                  5.629165124598851    
132                  132                  Si                   10.5                 5.629165124598851    
133                  133                  Si                   13.5                 5.629165124598851    
134                  134                  Si                   16.5                 5.629165124598851    
135                  135                  Si                   19.5                 5.629165124598851    
136                  136                  Si                   22.5                 5.629165124598851    
137                  137                  Si                   25.5                 5.629165124598851    
138                  138                  Si                   28.5                 5.629165124598851    
139                  139                  Si                   31.5                 5.629165124598851    
140                  140                  Si                   34.5                 5.629165124598851    
141                  141                  Si                   37.5                 5.629165124598851    
142                  142                  Si                   40.5                 5.629165124598851    
143                  143                  Si                   43.5                 5.629165124598851    
144                  144                  Si                   46.5                 5.629165124598851    
145                  145                  Si                   49.5                 5.629165124598851    
146                  146                  Si                   52.5                 5.629165124598851    
147                  147                  Si                   55.5                 5.629165124598851    
148                  148                  Si                   58.5                 5.629165124598851    
149                  149                  Si                   61.5                 5.629165124598851    
150                  150                  Si                   64.5                 5.629165124598851    
151                  151                  Si                   67.5                 5.629165124598851    
152                  152                  Si                   70.5                 5.629165124598851    
153                  153                  Si                   73.5                 5.629165124598851    
154                  154                  Si                   76.5                 5.629165124598851    
155                  155                  Si                   79.5                 5.629165124598851    
156                  156                  Si                   82.5                 5.629165124598851    
157                  157                  Si                   85.5                 5.629165124598851    
158                  158                  Si                   88.5                 5.629165124598851    
159                  159                  Si                   91.5                 5.629165124598851    
160                  160                  Si                   94.5                 5.629165124598851    
161                  161                  Si                   1.5                  7.361215932167728    
162                  162                  Si                   4.5                  7.361215932167728    
163                  163                  Si                   7.5                  7.361215932167728    
164                  164                  Si                   10.5                 7.361215932167728    
165                  165                  Si                   13.5                 7.361215932167728    
166                  166                  Si                   16.5                 7.361215932167728    
167                  167                  Si                   19.5                 7.361215932167728    
168                  168                  Si                   22.5                 7.361215932167728    
169                  169                  Si                   25.5                 7.361215932167728    
170                  170                  Si                   28.5                 7.361215932167728    
171                  171                  Si                   31.5                 7.361215932167728    
172                  172                  Si                   34.5                 7.361215932167728    
173                  173                  Si                   37.5                 7.361215932167728    
174                  174                  Si                   40.5                 7.361215932167728    
175                  175                  Si                   43.5                 7.361215932167728    
176                  176                  Si                   46.5                 7.361215932167728    
177                  177                  Si                   49.5                 7.361215932167728    
178                  178                  Si                   52.5                 7.361215932167728    
179                  179                  Si                   55.5                 7.361215932167728    
180                  180                  Si                   58.5                 7.361215932167728    
181                  181                  Si                   61.5                 7.361215932167728    
182                  182                  Si                   64.5                 7.361215932167728    
183                  183                  Si                   67.5                 7.361215932167728    
184                  184                  Si                   70.5                 7.361215932167728    
185                  185                  Si                   73.5                 7.361215932167728    
186                  186                  Si                   76.5                 7.361215932167728    
187                  187                  Si                   79.5                 7.361215932167728    
188                  188                  Si                   82.5                 7.361215932167728    
189                  189                  Si                   85.5                 7.361215932167728    
190                  190                  Si                   88.5                 7.361215932167728    
191                  191                  Si                   91.5                 7.361215932167728    
192                  192                  Si                   94.5                 7.361215932167728    
193                  193                  Si                   3.0                  8.227241335952169    
194                  194                  Si                   6.0                  8.227241335952169    
195                  195                  Si                   9.0                  8.227241335952169    
196                  196                  Si                   12.0                 8.227241335952169    
197                  197                  Si                   15.0                 8.227241335952169    
198                  198                  Si                   18.0                 8.227241335952169    
199                  199                  Si                   21.0                 8.227241335952169    
200                  200                  Si                   24.0                 8.227241335952169    
201                  201                  Si                   27.0                 8.227241335952169    
202                  202                  Si                   30.0                 8.227241335952169    
203                  203                  Si                   33.0                 8.227241335952169    
204                  204                  Si                   36.0                 8.227241335952169    
205                  205                  Si                   39.0                 8.227241335952169    
206                  206                  Si                   42.0                 8.227241335952169    
207                  207                  Si                   45.0                 8.227241335952169    
208                  208                  Si                   48.0                 8.227241335952169    
209                  209                  Si                   51.0                 8.227241335952169    
210                  210                  Si                   54.0                 8.227241335952169    
211                  211                  Si                   57.0                 8.227241335952169    
212                  212                  Si                   60.0                 8.227241335952169    
213                  213                  Si                   63.0                 8.227241335952169    
214                  214                  Si                   66.0                 8.227241335952169    
215                  215                  Si                   69.0                 8.227241335952169    
216                  216                  Si                   72.0                 8.227241335952169    
217                  217                  Si                   75.0                 8.227241335952169    
218                  218                  Si                   78.0                 8.227241335952169    
219                  219                  Si                   81.0                 8.227241335952169    
220                  220                  Si                   84.0                 8.227241335952169    
221                  221                  Si                   87.0                 8.227241335952169    
222                  222                  Si                   90.0                 8.227241335952169    
223                  223                  Si                   93.0                 8.227241335952169    
224                  224                  Si                   96.0                 8.227241335952169    
225                  225                  Si                   3.0                  9.959292143521044    
226                  226                  Si                   6.0                  9.959292143521044    
227                  227                  Si                   9.0                  9.959292143521044    
228                  228                  Si                   12.0                 9.959292143521044    
229                  229                  Si                   15.0                 9.959292143521044    
230                  230                  Si                   18.0                 9.959292143521044    
231                  231                  Si                   21.0                 9.959292143521044    
232                  232                  Si                   24.0                 9.959292143521044    
233                  233                  Si                   27.0                 9.959292143521044    
234                  234                  Si                   30.0                 9.959292143521044    
235                  235                  Si                   33.0                 9.959292143521044    
236                  236                  Si                   36.0                 9.959292143521044    
237                  237                  Si                   39.0                 9.959292143521044    
238                  238                  Si                   42.0                 9.959292143521044    
239                  239                  Si                   45.0                 9.959292143521044    
240                  240                  Si                   48.0                 9.959292143521044    
241                  241                  Si                   51.0                 9.959292143521044    
242                  242                  Si                   54.0                 9.959292143521044    
243                  243                  Si                   57.0                 9.959292143521044    
244                  244                  Si                   60.0                 9.959292143521044    
245                  245                  Si                   63.0                 9.959292143521044    
246                  246                  Si                   66.0                 9.959292143521044    
247                  247                  Si                   69.0                 9.959292143521044    
248                  248                  Si                   72.0                 9.959292143521044    
249                  249                  Si                   75.0                 9.959292143521044    
250                  250                  Si                   78.0                 9.959292143521044    
251                  251                  Si                   81.0                 9.959292143521044    
252                  252                  Si                   84.0                 9.959292143521044    
253                  253                  Si                   87.0                 9.959292143521044    
254                  254                  Si                   90.0                 9.959292143521044    
255                  255                  Si                   93.0                 9.959292143521044    
256                  256                  Si                   96.0                 9.959292143521044    
257                  257                  Si                   1.5                  10.825317547305483   
258                  258                  Si                   4.5                  10.825317547305483   
259                  259                  Si                   7.5                  10.825317547305483   
260                  260                  Si                   10.5                 10.825317547305483   
261                  261                  Si                   13.5                 10.825317547305483   
262                  262                  Si                   16.5                 10.825317547305483   
263                  263                  Si                   19.5                 10.825317547305483   
264                  264                  Si                   22.5                 10.825317547305483   
265                  265                  Si                   25.5                 10.825317547305483   
266                  266                  Si                   28.5                 10.825317547305483   
267                  267                  Si                   31.5                 10.825317547305483   
268                  268                  Si                   34.5                 10.825317547305483   
269                  269                  Si                   37.5                 10.825317547305483   
270                  270                  Si                   40.5                 10.825317547305483   
271                  271                  Si                   43.5                 10.825317547305483   
272                  272                  Si                   46.5                 10.825317547305483   
273                  273                  Si                   49.5                 10.825317547305483   
274                  274                  Si                   52.5                 10.825317547305483   
275                  275                  Si                   55.5                 10.825317547305483   
276                  276                  Si                   58.5                 10.825317547305483   
277                  277                  Si                   61.5                 10.825317547305483   
278                  278                  Si                   64.5                 10.825317547305483   