DATA FILE Produced from netmc results (cf David Morley)
3198 atoms
1 atom types
0.00000 98.34973673306361 xlo xhi
0.00000 85.17337083854319 ylo yhi

 Masses

1 12.0000 # Si

 Atoms # molecular

1    1    50.40418130606922        44.36113064507458        0.0                     # C
2    1    52.86299456655989        44.36113064507458        0.0                     # C
3    1    55.32166587143251        44.36113064507458        0.0                     # C
4    1    57.78047913192319        44.36113064507458        0.0                     # C
5    1    60.2391504367958         44.36113064507458        0.0                     # C
6    1    62.697963697286475       44.36113064507458        0.0                     # C
7    1    65.15663500215909        44.36113064507458        0.0                     # C
8    1    67.61544826264976        44.36113064507458        0.0                     # C
9    1    70.07411956752239        44.36113064507458        0.0                     # C
10   1    72.53293282801306        44.36113064507458        0.0                     # C
11   1    74.99174608850373        44.36113064507458        0.0                     # C
12   1    77.45041739337636        44.36113064507458        0.0                     # C
13   1    79.90923065386703        44.36113064507458        0.0                     # C
14   1    82.36790195873964        44.36113064507458        0.0                     # C
15   1    84.82671521923032        44.36113064507458        0.0                     # C
16   1    87.28538652410293        44.36113064507458        0.0                     # C
17   1    89.74419978459362        44.36113064507458        0.0                     # C
18   1    92.20287108946621        44.36113064507458        0.0                     # C
19   1    94.6616843499569         44.36113064507458        0.0                     # C
20   1    97.12035565482951        44.36113064507458        0.0                     # C
21   1    1.2293356524363068       44.36113064507458        0.0                     # C
22   1    3.688148912926984        44.36113064507458        0.0                     # C
23   1    6.146820217799598        44.36113064507458        0.0                     # C
24   1    8.605633478290276        44.36113064507458        0.0                     # C
25   1    11.06430478316289        44.36113064507458        0.0                     # C
26   1    13.523118043653568       44.36113064507458        0.0                     # C
27   1    15.981789348526181       44.36113064507458        0.0                     # C
28   1    18.440602609016857       44.36113064507458        0.0                     # C
29   1    20.899273913889473       44.36113064507458        0.0                     # C
30   1    23.35808717438015        44.36113064507458        0.0                     # C
31   1    25.816758479252762       44.36113064507458        0.0                     # C
32   1    28.275571739743445       44.36113064507458        0.0                     # C
33   1    30.734243044616054       44.36113064507458        0.0                     # C
34   1    33.19305630510674        44.36113064507458        0.0                     # C
35   1    35.65172760997934        44.36113064507458        0.0                     # C
36   1    38.110540870470025       44.36113064507458        0.0                     # C
37   1    40.569212175342635       44.36113064507458        0.0                     # C
38   1    43.028025435833314       44.36113064507458        0.0                     # C
39   1    45.48669674070593        44.36113064507458        0.0                     # C
40   1    47.94551000119661        44.36113064507458        0.0                     # C
41   1    49.17484565363291        45.070908735395776       0.0                     # C
42   1    51.63365891412359        45.070908735395776       0.0                     # C
43   1    54.0923302189962         45.070908735395776       0.0                     # C
44   1    56.55114347948689        45.070908735395776       0.0                     # C
45   1    59.0098147843595         45.070908735395776       0.0                     # C
46   1    61.46862804485017        45.070908735395776       0.0                     # C
47   1    63.92729934972278        45.070908735395776       0.0                     # C
48   1    66.38611261021347        45.070908735395776       0.0                     # C
49   1    68.84478391508608        45.070908735395776       0.0                     # C
50   1    71.30359717557675        45.070908735395776       0.0                     # C
51   1    73.76226848044936        45.070908735395776       0.0                     # C
52   1    76.22108174094005        45.070908735395776       0.0                     # C
53   1    78.67975304581266        45.070908735395776       0.0                     # C
54   1    81.13856630630333        45.070908735395776       0.0                     # C
55   1    83.59723761117596        45.070908735395776       0.0                     # C
56   1    86.05605087166663        45.070908735395776       0.0                     # C
57   1    88.51472217653925        45.070908735395776       0.0                     # C
58   1    90.97353543702991        45.070908735395776       0.0                     # C
59   1    93.43220674190253        45.070908735395776       0.0                     # C
60   1    95.89102000239322        45.070908735395776       0.0                     # C
61   1    98.34969130726581        45.070908735395776       0.0                     # C
62   1    2.4588132604906776       45.070908735395776       0.0                     # C
63   1    4.917484565363291        45.070908735395776       0.0                     # C
64   1    7.376297825853968        45.070908735395776       0.0                     # C
65   1    9.834969130726583        45.070908735395776       0.0                     # C
66   1    12.293782391217258       45.070908735395776       0.0                     # C
67   1    14.752453696089875       45.070908735395776       0.0                     # C
68   1    17.211266956580552       45.070908735395776       0.0                     # C
69   1    19.669938261453165       45.070908735395776       0.0                     # C
70   1    22.128751521943844       45.070908735395776       0.0                     # C
71   1    24.587422826816454       45.070908735395776       0.0                     # C
72   1    27.046236087307136       45.070908735395776       0.0                     # C
73   1    29.50490739217975        45.070908735395776       0.0                     # C
74   1    31.963720652670425       45.070908735395776       0.0                     # C
75   1    34.42239195754304        45.070908735395776       0.0                     # C
76   1    36.88120521803371        45.070908735395776       0.0                     # C
77   1    39.33987652290633        45.070908735395776       0.0                     # C
78   1    41.79868978339701        45.070908735395776       0.0                     # C
79   1    44.257361088269626       45.070908735395776       0.0                     # C
80   1    46.7161743487603         45.070908735395776       0.0                     # C
81   1    51.63365891412359        46.490464916038164       0.0                     # C
82   1    54.0923302189962         46.490464916038164       0.0                     # C
83   1    56.55114347948689        46.490464916038164       0.0                     # C
84   1    59.0098147843595         46.490464916038164       0.0                     # C
85   1    61.46862804485017        46.490464916038164       0.0                     # C
86   1    63.92729934972278        46.490464916038164       0.0                     # C
87   1    66.38611261021347        46.490464916038164       0.0                     # C
88   1    68.84478391508608        46.490464916038164       0.0                     # C
89   1    71.30359717557675        46.490464916038164       0.0                     # C
90   1    73.76226848044936        46.490464916038164       0.0                     # C
91   1    76.22108174094005        46.490464916038164       0.0                     # C
92   1    78.67975304581266        46.490464916038164       0.0                     # C
93   1    81.13856630630333        46.490464916038164       0.0                     # C
94   1    83.59723761117596        46.490464916038164       0.0                     # C
95   1    86.05605087166663        46.490464916038164       0.0                     # C
96   1    88.51472217653925        46.490464916038164       0.0                     # C
97   1    90.97353543702991        46.490464916038164       0.0                     # C
98   1    93.43220674190253        46.490464916038164       0.0                     # C
99   1    95.89102000239322        46.490464916038164       0.0                     # C
100  1    98.34969130726581        46.490464916038164       0.0                     # C
101  1    2.4588132604906776       46.490464916038164       0.0                     # C
102  1    4.917484565363291        46.490464916038164       0.0                     # C
103  1    7.376297825853968        46.490464916038164       0.0                     # C
104  1    9.834969130726583        46.490464916038164       0.0                     # C
105  1    12.293782391217258       46.490464916038164       0.0                     # C
106  1    14.752453696089875       46.490464916038164       0.0                     # C
107  1    17.211266956580552       46.490464916038164       0.0                     # C
108  1    19.669938261453165       46.490464916038164       0.0                     # C
109  1    22.128751521943844       46.490464916038164       0.0                     # C
110  1    24.587422826816454       46.490464916038164       0.0                     # C
111  1    27.046236087307136       46.490464916038164       0.0                     # C
112  1    29.50490739217975        46.490464916038164       0.0                     # C
113  1    31.963720652670425       46.490464916038164       0.0                     # C
114  1    34.42239195754304        46.490464916038164       0.0                     # C
115  1    36.88120521803371        46.490464916038164       0.0                     # C
116  1    39.33987652290633        46.490464916038164       0.0                     # C
117  1    41.79868978339701        46.490464916038164       0.0                     # C
118  1    44.257361088269626       46.490464916038164       0.0                     # C
119  1    46.7161743487603         46.490464916038164       0.0                     # C
120  1    49.17484565363291        46.490464916038164       0.0                     # C
121  1    50.40418130606922        47.20024300635935        0.0                     # C
122  1    52.86299456655989        47.20024300635935        0.0                     # C
123  1    55.32166587143251        47.20024300635935        0.0                     # C
124  1    57.78047913192319        47.20024300635935        0.0                     # C
125  1    60.2391504367958         47.20024300635935        0.0                     # C
126  1    62.697963697286475       47.20024300635935        0.0                     # C
127  1    65.15663500215909        47.20024300635935        0.0                     # C
128  1    67.61544826264976        47.20024300635935        0.0                     # C
129  1    70.07411956752239        47.20024300635935        0.0                     # C
130  1    72.53293282801306        47.20024300635935        0.0                     # C
131  1    74.99174608850373        47.20024300635935        0.0                     # C
132  1    77.45041739337636        47.20024300635935        0.0                     # C
133  1    79.90923065386703        47.20024300635935        0.0                     # C
134  1    82.36790195873964        47.20024300635935        0.0                     # C
135  1    84.82671521923032        47.20024300635935        0.0                     # C
136  1    87.28538652410293        47.20024300635935        0.0                     # C
137  1    89.74419978459362        47.20024300635935        0.0                     # C
138  1    92.20287108946621        47.20024300635935        0.0                     # C
139  1    94.6616843499569         47.20024300635935        0.0                     # C
140  1    97.12035565482951        47.20024300635935        0.0                     # C
141  1    1.2293356524363068       47.20024300635935        0.0                     # C
142  1    3.688148912926984        47.20024300635935        0.0                     # C
143  1    6.146820217799598        47.20024300635935        0.0                     # C
144  1    8.605633478290276        47.20024300635935        0.0                     # C
145  1    11.06430478316289        47.20024300635935        0.0                     # C
146  1    13.523118043653568       47.20024300635935        0.0                     # C
147  1    15.981789348526181       47.20024300635935        0.0                     # C
148  1    18.440602609016857       47.20024300635935        0.0                     # C
149  1    20.899273913889473       47.20024300635935        0.0                     # C
150  1    23.35808717438015        47.20024300635935        0.0                     # C
151  1    25.816758479252762       47.20024300635935        0.0                     # C
152  1    28.275571739743445       47.20024300635935        0.0                     # C
153  1    30.734243044616054       47.20024300635935        0.0                     # C
154  1    33.19305630510674        47.20024300635935        0.0                     # C
155  1    35.65172760997934        47.20024300635935        0.0                     # C
156  1    38.110540870470025       47.20024300635935        0.0                     # C
157  1    40.569212175342635       47.20024300635935        0.0                     # C
158  1    43.028025435833314       47.20024300635935        0.0                     # C
159  1    45.48669674070593        47.20024300635935        0.0                     # C
160  1    47.94551000119661        47.20024300635935        0.0                     # C
161  1    50.40418130606922        48.61979918700174        0.0                     # C
162  1    52.86299456655989        48.61979918700174        0.0                     # C
163  1    55.32166587143251        48.61979918700174        0.0                     # C
164  1    57.78047913192319        48.61979918700174        0.0                     # C
165  1    60.2391504367958         48.61979918700174        0.0                     # C
166  1    62.697963697286475       48.61979918700174        0.0                     # C
167  1    65.15663500215909        48.61979918700174        0.0                     # C
168  1    67.61544826264976        48.61979918700174        0.0                     # C
169  1    70.07411956752239        48.61979918700174        0.0                     # C
170  1    72.53293282801306        48.61979918700174        0.0                     # C
171  1    74.99174608850373        48.61979918700174        0.0                     # C
172  1    77.45041739337636        48.61979918700174        0.0                     # C
173  1    79.90923065386703        48.61979918700174        0.0                     # C
174  1    82.36790195873964        48.61979918700174        0.0                     # C
175  1    84.82671521923032        48.61979918700174        0.0                     # C
176  1    87.28538652410293        48.61979918700174        0.0                     # C
177  1    89.74419978459362        48.61979918700174        0.0                     # C
178  1    92.20287108946621        48.61979918700174        0.0                     # C
179  1    94.6616843499569         48.61979918700174        0.0                     # C
180  1    97.12035565482951        48.61979918700174        0.0                     # C
181  1    1.2293356524363068       48.61979918700174        0.0                     # C
182  1    3.688148912926984        48.61979918700174        0.0                     # C
183  1    6.146820217799598        48.61979918700174        0.0                     # C
184  1    8.605633478290276        48.61979918700174        0.0                     # C
185  1    11.06430478316289        48.61979918700174        0.0                     # C
186  1    13.523118043653568       48.61979918700174        0.0                     # C
187  1    15.981789348526181       48.61979918700174        0.0                     # C
188  1    18.440602609016857       48.61979918700174        0.0                     # C
189  1    20.899273913889473       48.61979918700174        0.0                     # C
190  1    23.35808717438015        48.61979918700174        0.0                     # C
191  1    25.816758479252762       48.61979918700174        0.0                     # C
192  1    28.275571739743445       48.61979918700174        0.0                     # C
193  1    30.734243044616054       48.61979918700174        0.0                     # C
194  1    33.19305630510674        48.61979918700174        0.0                     # C
195  1    35.65172760997934        48.61979918700174        0.0                     # C
196  1    38.110540870470025       48.61979918700174        0.0                     # C
197  1    40.569212175342635       48.61979918700174        0.0                     # C
198  1    43.028025435833314       48.61979918700174        0.0                     # C
199  1    45.48669674070593        48.61979918700174        0.0                     # C
200  1    47.94551000119661        48.61979918700174        0.0                     # C
201  1    49.17484565363291        49.32957727732293        0.0                     # C
202  1    51.63365891412359        49.32957727732293        0.0                     # C
203  1    54.0923302189962         49.32957727732293        0.0                     # C
204  1    56.55114347948689        49.32957727732293        0.0                     # C
205  1    59.0098147843595         49.32957727732293        0.0                     # C
206  1    61.46862804485017        49.32957727732293        0.0                     # C
207  1    63.92729934972278        49.32957727732293        0.0                     # C
208  1    66.38611261021347        49.32957727732293        0.0                     # C
209  1    68.84478391508608        49.32957727732293        0.0                     # C
210  1    71.30359717557675        49.32957727732293        0.0                     # C
211  1    73.76226848044936        49.32957727732293        0.0                     # C
212  1    76.22108174094005        49.32957727732293        0.0                     # C
213  1    78.67975304581266        49.32957727732293        0.0                     # C
214  1    81.13856630630333        49.32957727732293        0.0                     # C
215  1    83.59723761117596        49.32957727732293        0.0                     # C
216  1    86.05605087166663        49.32957727732293        0.0                     # C
217  1    88.51472217653925        49.32957727732293        0.0                     # C
218  1    90.97353543702991        49.32957727732293        0.0                     # C
219  1    93.43220674190253        49.32957727732293        0.0                     # C
220  1    95.89102000239322        49.32957727732293        0.0                     # C
221  1    98.34969130726581        49.32957727732293        0.0                     # C
222  1    2.4588132604906776       49.32957727732293        0.0                     # C
223  1    4.917484565363291        49.32957727732293        0.0                     # C
224  1    7.376297825853968        49.32957727732293        0.0                     # C
225  1    9.834969130726583        49.32957727732293        0.0                     # C
226  1    12.293782391217258       49.32957727732293        0.0                     # C
227  1    14.752453696089875       49.32957727732293        0.0                     # C
228  1    17.211266956580552       49.32957727732293        0.0                     # C
229  1    19.669938261453165       49.32957727732293        0.0                     # C
230  1    22.128751521943844       49.32957727732293        0.0                     # C
231  1    24.587422826816454       49.32957727732293        0.0                     # C
232  1    27.046236087307136       49.32957727732293        0.0                     # C
233  1    29.50490739217975        49.32957727732293        0.0                     # C
234  1    31.963720652670425       49.32957727732293        0.0                     # C
235  1    34.42239195754304        49.32957727732293        0.0                     # C
236  1    36.88120521803371        49.32957727732293        0.0                     # C
237  1    39.33987652290633        49.32957727732293        0.0                     # C
238  1    41.79868978339701        49.32957727732293        0.0                     # C
239  1    44.257361088269626       49.32957727732293        0.0                     # C
240  1    46.7161743487603         49.32957727732293        0.0                     # C
241  1    51.63365891412359        50.74913345796532        0.0                     # C
242  1    54.0923302189962         50.74913345796532        0.0                     # C
243  1    56.55114347948689        50.74913345796532        0.0                     # C
244  1    59.0098147843595         50.74913345796532        0.0                     # C
245  1    61.46862804485017        50.74913345796532        0.0                     # C
246  1    63.92729934972278        50.74913345796532        0.0                     # C
247  1    66.38611261021347        50.74913345796532        0.0                     # C
248  1    68.84478391508608        50.74913345796532        0.0                     # C
249  1    71.30359717557675        50.74913345796532        0.0                     # C
250  1    73.76226848044936        50.74913345796532        0.0                     # C
251  1    76.22108174094005        50.74913345796532        0.0                     # C
252  1    78.67975304581266        50.74913345796532        0.0                     # C
253  1    81.13856630630333        50.74913345796532        0.0                     # C
254  1    83.59723761117596        50.74913345796532        0.0                     # C
255  1    86.05605087166663        50.74913345796532        0.0                     # C
256  1    88.51472217653925        50.74913345796532        0.0                     # C
257  1    90.97353543702991        50.74913345796532        0.0                     # C
258  1    93.43220674190253        50.74913345796532        0.0                     # C
259  1    95.89102000239322        50.74913345796532        0.0                     # C
260  1    98.34969130726581        50.74913345796532        0.0                     # C
261  1    2.4588132604906776       50.74913345796532        0.0                     # C
262  1    4.917484565363291        50.74913345796532        0.0                     # C
263  1    7.376297825853968        50.74913345796532        0.0                     # C
264  1    9.834969130726583        50.74913345796532        0.0                     # C
265  1    12.293782391217258       50.74913345796532        0.0                     # C
266  1    14.752453696089875       50.74913345796532        0.0                     # C
267  1    17.211266956580552       50.74913345796532        0.0                     # C
268  1    19.669938261453165       50.74913345796532        0.0                     # C
269  1    22.128751521943844       50.74913345796532        0.0                     # C
270  1    24.587422826816454       50.74913345796532        0.0                     # C
271  1    27.046236087307136       50.74913345796532        0.0                     # C
272  1    29.50490739217975        50.74913345796532        0.0                     # C
273  1    31.963720652670425       50.74913345796532        0.0                     # C
274  1    34.42239195754304        50.74913345796532        0.0                     # C
275  1    36.88120521803371        50.74913345796532        0.0                     # C
276  1    39.33987652290633        50.74913345796532        0.0                     # C
277  1    41.79868978339701        50.74913345796532        0.0                     # C
278  1    44.257361088269626       50.74913345796532        0.0                     # C
279  1    46.7161743487603         50.74913345796532        0.0                     # C
280  1    49.17484565363291        50.74913345796532        0.0                     # C
281  1    50.40418130606922        51.45891154828651        0.0                     # C
282  1    52.86299456655989        51.45891154828651        0.0                     # C
283  1    55.32166587143251        51.45891154828651        0.0                     # C
284  1    57.78047913192319        51.45891154828651        0.0                     # C
285  1    60.2391504367958         51.45891154828651        0.0                     # C
286  1    62.697963697286475       51.45891154828651        0.0                     # C
287  1    65.15663500215909        51.45891154828651        0.0                     # C
288  1    67.61544826264976        51.45891154828651        0.0                     # C
289  1    70.07411956752239        51.45891154828651        0.0                     # C
290  1    72.53293282801306        51.45891154828651        0.0                     # C
291  1    74.99174608850373        51.45891154828651        0.0                     # C
292  1    77.45041739337636        51.45891154828651        0.0                     # C
293  1    79.90923065386703        51.45891154828651        0.0                     # C
294  1    82.36790195873964        51.45891154828651        0.0                     # C
295  1    84.82671521923032        51.45891154828651        0.0                     # C
296  1    87.28538652410293        51.45891154828651        0.0                     # C
297  1    89.74419978459362        51.45891154828651        0.0                     # C
298  1    92.20287108946621        51.45891154828651        0.0                     # C
299  1    94.6616843499569         51.45891154828651        0.0                     # C
300  1    97.12035565482951        51.45891154828651        0.0                     # C
301  1    1.2293356524363068       51.45891154828651        0.0                     # C
302  1    3.688148912926984        51.45891154828651        0.0                     # C
303  1    6.146820217799598        51.45891154828651        0.0                     # C
304  1    8.605633478290276        51.45891154828651        0.0                     # C
305  1    11.06430478316289        51.45891154828651        0.0                     # C
306  1    13.523118043653568       51.45891154828651        0.0                     # C
307  1    15.981789348526181       51.45891154828651        0.0                     # C
308  1    18.440602609016857       51.45891154828651        0.0                     # C
309  1    20.899273913889473       51.45891154828651        0.0                     # C
310  1    23.35808717438015        51.45891154828651        0.0                     # C
311  1    25.816758479252762       51.45891154828651        0.0                     # C
312  1    28.275571739743445       51.45891154828651        0.0                     # C
313  1    30.734243044616054       51.45891154828651        0.0                     # C
314  1    33.19305630510674        51.45891154828651        0.0                     # C
315  1    35.65172760997934        51.45891154828651        0.0                     # C
316  1    38.110540870470025       51.45891154828651        0.0                     # C
317  1    40.569212175342635       51.45891154828651        0.0                     # C
318  1    43.028025435833314       51.45891154828651        0.0                     # C
319  1    45.48669674070593        51.45891154828651        0.0                     # C
320  1    47.94551000119661        51.45891154828651        0.0                     # C
321  1    50.40418130606922        52.8784677289289         0.0                     # C
322  1    52.86299456655989        52.8784677289289         0.0                     # C
323  1    55.32166587143251        52.8784677289289         0.0                     # C
324  1    57.78047913192319        52.8784677289289         0.0                     # C
325  1    60.2391504367958         52.8784677289289         0.0                     # C
326  1    62.697963697286475       52.8784677289289         0.0                     # C
327  1    65.15663500215909        52.8784677289289         0.0                     # C
328  1    67.61544826264976        52.8784677289289         0.0                     # C
329  1    70.07411956752239        52.8784677289289         0.0                     # C
330  1    72.53293282801306        52.8784677289289         0.0                     # C
331  1    74.99174608850373        52.8784677289289         0.0                     # C
332  1    77.45041739337636        52.8784677289289         0.0                     # C
333  1    79.90923065386703        52.8784677289289         0.0                     # C
334  1    82.36790195873964        52.8784677289289         0.0                     # C
335  1    84.82671521923032        52.8784677289289         0.0                     # C
336  1    87.28538652410293        52.8784677289289         0.0                     # C
337  1    89.74419978459362        52.8784677289289         0.0                     # C
338  1    92.20287108946621        52.8784677289289         0.0                     # C